TITLE = "FUNC"
VARIABLES = "X", "F"
ZONE I=5001, F=POINT
 0.0000000000000e+00  1.0004998750208e+00
 1.0000000000000e-04  1.0004751483885e+00
 2.0000000000000e-04  1.0004513960538e+00
 3.0000000000000e-04  1.0004285928384e+00
 4.0000000000000e-04  1.0004067136135e+00
 5.0000000000000e-04  1.0003857333247e+00
 6.0000000000000e-04  1.0003656270168e+00
 7.0000000000000e-04  1.0003463698583e+00
 8.0000000000000e-04  1.0003279371654e+00
 9.0000000000000e-04  1.0003103044261e+00
 1.0000000000000e-03  1.0002934473229e+00
 1.1000000000000e-03  1.0002773417556e+00
 1.2000000000000e-03  1.0002619638631e+00
 1.3000000000000e-03  1.0002472900451e+00
 1.4000000000000e-03  1.0002332969821e+00
 1.5000000000000e-03  1.0002199616554e+00
 1.6000000000000e-03  1.0002072613658e+00
 1.7000000000000e-03  1.0001951737517e+00
 1.8000000000000e-03  1.0001836768061e+00
 1.9000000000000e-03  1.0001727488924e+00
 2.0000000000000e-03  1.0001623687600e+00
 2.1000000000000e-03  1.0001525155575e+00
 2.2000000000000e-03  1.0001431688463e+00
 2.3000000000000e-03  1.0001343086124e+00
 2.4000000000000e-03  1.0001259152767e+00
 2.5000000000000e-03  1.0001179697054e+00
 2.6000000000000e-03  1.0001104532178e+00
 2.7000000000000e-03  1.0001033475946e+00
 2.8000000000000e-03  1.0000966350837e+00
 2.9000000000000e-03  1.0000902984056e+00
 3.0000000000000e-03  1.0000843207579e+00
 3.1000000000000e-03  1.0000786858182e+00
 3.2000000000000e-03  1.0000733777465e+00
 3.3000000000000e-03  1.0000683811859e+00
 3.4000000000000e-03  1.0000636812631e+00
 3.5000000000000e-03  1.0000592635875e+00
 3.6000000000000e-03  1.0000551142494e+00
 3.7000000000000e-03  1.0000512198173e+00
 3.8000000000000e-03  1.0000475673346e+00
 3.9000000000000e-03  1.0000441443152e+00
 4.0000000000000e-03  1.0000409387383e+00
 4.1000000000000e-03  1.0000379390429e+00
 4.2000000000000e-03  1.0000351341213e+00
 4.3000000000000e-03  1.0000325133117e+00
 4.4000000000000e-03  1.0000300663907e+00
 4.5000000000000e-03  1.0000277835652e+00
 4.6000000000000e-03  1.0000256554635e+00
 4.7000000000000e-03  1.0000236731262e+00
 4.8000000000000e-03  1.0000218279964e+00
 4.9000000000000e-03  1.0000201119102e+00
 5.0000000000000e-03  1.0000185170862e+00
 5.1000000000000e-03  1.0000170361148e+00
 5.2000000000000e-03  1.0000156619478e+00
 5.3000000000000e-03  1.0000143878873e+00
 5.4000000000000e-03  1.0000132075747e+00
 5.5000000000000e-03  1.0000121149797e+00
 5.6000000000000e-03  1.0000111043885e+00
 5.7000000000000e-03  1.0000101703933e+00
 5.8000000000000e-03  1.0000093078807e+00
 5.9000000000000e-03  1.0000085120204e+00
 6.0000000000000e-03  1.0000077782542e+00
 6.1000000000000e-03  1.0000071022851e+00
 6.2000000000000e-03  1.0000064800660e+00
 6.3000000000000e-03  1.0000059077894e+00
 6.4000000000000e-03  1.0000053818766e+00
 6.5000000000000e-03  1.0000048989672e+00
 6.6000000000000e-03  1.0000044559092e+00
 6.7000000000000e-03  1.0000040497486e+00
 6.8000000000000e-03  1.0000036777204e+00
 6.9000000000000e-03  1.0000033372383e+00
 7.0000000000000e-03  1.0000030258862e+00
 7.1000000000000e-03  1.0000027414089e+00
 7.2000000000000e-03  1.0000024817037e+00
 7.3000000000000e-03  1.0000022448117e+00
 7.4000000000000e-03  1.0000020289103e+00
 7.5000000000000e-03  1.0000018323050e+00
 7.6000000000000e-03  1.0000016534221e+00
 7.7000000000000e-03  1.0000014908016e+00
 7.8000000000000e-03  1.0000013430902e+00
 7.9000000000000e-03  1.0000012090349e+00
 8.0000000000000e-03  1.0000010874766e+00
 8.1000000000000e-03  1.0000009773442e+00
 8.2000000000000e-03  1.0000008776491e+00
 8.3000000000000e-03  1.0000007874792e+00
 8.4000000000000e-03  1.0000007059945e+00
 8.5000000000000e-03  1.0000006324216e+00
 8.6000000000000e-03  1.0000005660496e+00
 8.7000000000000e-03  1.0000005062253e+00
 8.8000000000000e-03  1.0000004523494e+00
 8.9000000000000e-03  1.0000004038723e+00
 9.0000000000000e-03  1.0000003602910e+00
 9.1000000000000e-03  1.0000003211451e+00
 9.2000000000000e-03  1.0000002860137e+00
 9.3000000000000e-03  1.0000002545126e+00
 9.4000000000000e-03  1.0000002262914e+00
 9.5000000000000e-03  1.0000002010307e+00
 9.6000000000000e-03  1.0000001784397e+00
 9.7000000000000e-03  1.0000001582540e+00
 9.8000000000000e-03  1.0000001402334e+00
 9.9000000000000e-03  1.0000001241598e+00
 1.0000000000000e-02  1.0000001098354e+00
 1.0100000000000e-02  1.0000000970813e+00
 1.0200000000000e-02  1.0000000857352e+00
 1.0300000000000e-02  1.0000000756507e+00
 1.0400000000000e-02  1.0000000666955e+00
 1.0500000000000e-02  1.0000000587501e+00
 1.0600000000000e-02  1.0000000517070e+00
 1.0700000000000e-02  1.0000000454692e+00
 1.0800000000000e-02  1.0000000399497e+00
 1.0900000000000e-02  1.0000000350699e+00
 1.1000000000000e-02  1.0000000307597e+00
 1.1100000000000e-02  1.0000000269560e+00
 1.1200000000000e-02  1.0000000236023e+00
 1.1300000000000e-02  1.0000000206479e+00
 1.1400000000000e-02  1.0000000180477e+00
 1.1500000000000e-02  1.0000000157612e+00
 1.1600000000000e-02  1.0000000137525e+00
 1.1700000000000e-02  1.0000000119893e+00
 1.1800000000000e-02  1.0000000104431e+00
 1.1900000000000e-02  1.0000000090884e+00
 1.2000000000000e-02  1.0000000079025e+00
 1.2100000000000e-02  1.0000000068653e+00
 1.2200000000000e-02  1.0000000059591e+00
 1.2300000000000e-02  1.0000000051679e+00
 1.2400000000000e-02  1.0000000044778e+00
 1.2500000000000e-02  1.0000000038765e+00
 1.2600000000000e-02  1.0000000033530e+00
 1.2700000000000e-02  1.0000000028976e+00
 1.2800000000000e-02  1.0000000025019e+00
 1.2900000000000e-02  1.0000000021583e+00
 1.3000000000000e-02  1.0000000018602e+00
 1.3100000000000e-02  1.0000000016019e+00
 1.3200000000000e-02  1.0000000013782e+00
 1.3300000000000e-02  1.0000000011847e+00
 1.3400000000000e-02  1.0000000010175e+00
 1.3500000000000e-02  1.0000000008731e+00
 1.3600000000000e-02  1.0000000007486e+00
 1.3700000000000e-02  1.0000000006412e+00
 1.3800000000000e-02  1.0000000005487e+00
 1.3900000000000e-02  1.0000000004692e+00
 1.4000000000000e-02  1.0000000004008e+00
 1.4100000000000e-02  1.0000000003421e+00
 1.4200000000000e-02  1.0000000002917e+00
 1.4300000000000e-02  1.0000000002486e+00
 1.4400000000000e-02  1.0000000002116e+00
 1.4500000000000e-02  1.0000000001799e+00
 1.4600000000000e-02  1.0000000001529e+00
 1.4700000000000e-02  1.0000000001298e+00
 1.4800000000000e-02  1.0000000001101e+00
 1.4900000000000e-02  1.0000000000933e+00
 1.5000000000000e-02  1.0000000000790e+00
 1.5100000000000e-02  1.0000000000668e+00
 1.5200000000000e-02  1.0000000000565e+00
 1.5300000000000e-02  1.0000000000477e+00
 1.5400000000000e-02  1.0000000000402e+00
 1.5500000000000e-02  1.0000000000339e+00
 1.5600000000000e-02  1.0000000000286e+00
 1.5700000000000e-02  1.0000000000241e+00
 1.5800000000000e-02  1.0000000000202e+00
 1.5900000000000e-02  1.0000000000170e+00
 1.6000000000000e-02  1.0000000000143e+00
 1.6100000000000e-02  1.0000000000120e+00
 1.6200000000000e-02  1.0000000000100e+00
 1.6300000000000e-02  1.0000000000084e+00
 1.6400000000000e-02  1.0000000000070e+00
 1.6500000000000e-02  1.0000000000059e+00
 1.6600000000000e-02  1.0000000000049e+00
 1.6700000000000e-02  1.0000000000041e+00
 1.6800000000000e-02  1.0000000000034e+00
 1.6900000000000e-02  1.0000000000029e+00
 1.7000000000000e-02  1.0000000000024e+00
 1.7100000000000e-02  1.0000000000020e+00
 1.7200000000000e-02  1.0000000000016e+00
 1.7300000000000e-02  1.0000000000014e+00
 1.7400000000000e-02  1.0000000000011e+00
 1.7500000000000e-02  1.0000000000009e+00
 1.7600000000000e-02  1.0000000000008e+00
 1.7700000000000e-02  1.0000000000006e+00
 1.7800000000000e-02  1.0000000000005e+00
 1.7900000000000e-02  1.0000000000004e+00
 1.8000000000000e-02  1.0000000000004e+00
 1.8100000000000e-02  1.0000000000003e+00
 1.8200000000000e-02  1.0000000000002e+00
 1.8300000000000e-02  1.0000000000002e+00
 1.8400000000000e-02  1.0000000000002e+00
 1.8500000000000e-02  1.0000000000001e+00
 1.8600000000000e-02  1.0000000000001e+00
 1.8700000000000e-02  1.0000000000001e+00
 1.8800000000000e-02  1.0000000000001e+00
 1.8900000000000e-02  1.0000000000001e+00
 1.9000000000000e-02  1.0000000000000e+00
 1.9100000000000e-02  1.0000000000000e+00
 1.9200000000000e-02  1.0000000000000e+00
 1.9300000000000e-02  1.0000000000000e+00
 1.9400000000000e-02  1.0000000000000e+00
 1.9500000000000e-02  1.0000000000000e+00
 1.9600000000000e-02  1.0000000000000e+00
 1.9700000000000e-02  1.0000000000000e+00
 1.9800000000000e-02  1.0000000000000e+00
 1.9900000000000e-02  1.0000000000000e+00
 2.0000000000000e-02  1.0000000000000e+00
 2.0100000000000e-02  1.0000000000000e+00
 2.0200000000000e-02  1.0000000000000e+00
 2.0300000000000e-02  1.0000000000000e+00
 2.0400000000000e-02  1.0000000000000e+00
 2.0500000000000e-02  1.0000000000000e+00
 2.0600000000000e-02  1.0000000000000e+00
 2.0700000000000e-02  1.0000000000000e+00
 2.0800000000000e-02  1.0000000000000e+00
 2.0900000000000e-02  1.0000000000000e+00
 2.1000000000000e-02  1.0000000000000e+00
 2.1100000000000e-02  1.0000000000000e+00
 2.1200000000000e-02  1.0000000000000e+00
 2.1300000000000e-02  1.0000000000000e+00
 2.1400000000000e-02  1.0000000000000e+00
 2.1500000000000e-02  1.0000000000000e+00
 2.1600000000000e-02  1.0000000000000e+00
 2.1700000000000e-02  1.0000000000000e+00
 2.1800000000000e-02  1.0000000000000e+00
 2.1900000000000e-02  1.0000000000000e+00
 2.2000000000000e-02  1.0000000000000e+00
 2.2100000000000e-02  1.0000000000000e+00
 2.2200000000000e-02  1.0000000000000e+00
 2.2300000000000e-02  1.0000000000000e+00
 2.2400000000000e-02  1.0000000000000e+00
 2.2500000000000e-02  1.0000000000000e+00
 2.2600000000000e-02  1.0000000000000e+00
 2.2700000000000e-02  1.0000000000000e+00
 2.2800000000000e-02  1.0000000000000e+00
 2.2900000000000e-02  1.0000000000000e+00
 2.3000000000000e-02  1.0000000000000e+00
 2.3100000000000e-02  1.0000000000000e+00
 2.3200000000000e-02  1.0000000000000e+00
 2.3300000000000e-02  1.0000000000000e+00
 2.3400000000000e-02  1.0000000000000e+00
 2.3500000000000e-02  1.0000000000000e+00
 2.3600000000000e-02  1.0000000000000e+00
 2.3700000000000e-02  1.0000000000000e+00
 2.3800000000000e-02  1.0000000000000e+00
 2.3900000000000e-02  1.0000000000000e+00
 2.4000000000000e-02  1.0000000000000e+00
 2.4100000000000e-02  1.0000000000000e+00
 2.4200000000000e-02  1.0000000000000e+00
 2.4300000000000e-02  1.0000000000000e+00
 2.4400000000000e-02  1.0000000000000e+00
 2.4500000000000e-02  1.0000000000000e+00
 2.4600000000000e-02  1.0000000000000e+00
 2.4700000000000e-02  1.0000000000000e+00
 2.4800000000000e-02  1.0000000000000e+00
 2.4900000000000e-02  1.0000000000000e+00
 2.5000000000000e-02  1.0000000000000e+00
 2.5100000000000e-02  1.0000000000000e+00
 2.5200000000000e-02  1.0000000000000e+00
 2.5300000000000e-02  1.0000000000000e+00
 2.5400000000000e-02  1.0000000000000e+00
 2.5500000000000e-02  1.0000000000000e+00
 2.5600000000000e-02  1.0000000000000e+00
 2.5700000000000e-02  1.0000000000000e+00
 2.5800000000000e-02  1.0000000000000e+00
 2.5900000000000e-02  1.0000000000000e+00
 2.6000000000000e-02  1.0000000000000e+00
 2.6100000000000e-02  1.0000000000000e+00
 2.6200000000000e-02  1.0000000000000e+00
 2.6300000000000e-02  1.0000000000000e+00
 2.6400000000000e-02  1.0000000000000e+00
 2.6500000000000e-02  1.0000000000000e+00
 2.6600000000000e-02  1.0000000000000e+00
 2.6700000000000e-02  1.0000000000000e+00
 2.6800000000000e-02  1.0000000000000e+00
 2.6900000000000e-02  1.0000000000000e+00
 2.7000000000000e-02  1.0000000000000e+00
 2.7100000000000e-02  1.0000000000000e+00
 2.7200000000000e-02  1.0000000000000e+00
 2.7300000000000e-02  1.0000000000000e+00
 2.7400000000000e-02  1.0000000000000e+00
 2.7500000000000e-02  1.0000000000000e+00
 2.7600000000000e-02  1.0000000000000e+00
 2.7700000000000e-02  1.0000000000000e+00
 2.7800000000000e-02  1.0000000000000e+00
 2.7900000000000e-02  1.0000000000000e+00
 2.8000000000000e-02  1.0000000000000e+00
 2.8100000000000e-02  1.0000000000000e+00
 2.8200000000000e-02  1.0000000000000e+00
 2.8300000000000e-02  1.0000000000000e+00
 2.8400000000000e-02  1.0000000000000e+00
 2.8500000000000e-02  1.0000000000000e+00
 2.8600000000000e-02  1.0000000000000e+00
 2.8700000000000e-02  1.0000000000000e+00
 2.8800000000000e-02  1.0000000000000e+00
 2.8900000000000e-02  1.0000000000000e+00
 2.9000000000000e-02  1.0000000000000e+00
 2.9100000000000e-02  1.0000000000000e+00
 2.9200000000000e-02  1.0000000000000e+00
 2.9300000000000e-02  1.0000000000000e+00
 2.9400000000000e-02  1.0000000000000e+00
 2.9500000000000e-02  1.0000000000000e+00
 2.9600000000000e-02  1.0000000000000e+00
 2.9700000000000e-02  1.0000000000000e+00
 2.9800000000000e-02  1.0000000000000e+00
 2.9900000000000e-02  1.0000000000000e+00
 3.0000000000000e-02  1.0000000000000e+00
 3.0100000000000e-02  1.0000000000000e+00
 3.0200000000000e-02  1.0000000000000e+00
 3.0300000000000e-02  1.0000000000000e+00
 3.0400000000000e-02  1.0000000000000e+00
 3.0500000000000e-02  1.0000000000000e+00
 3.0600000000000e-02  1.0000000000000e+00
 3.0700000000000e-02  1.0000000000000e+00
 3.0800000000000e-02  1.0000000000000e+00
 3.0900000000000e-02  1.0000000000000e+00
 3.1000000000000e-02  1.0000000000000e+00
 3.1100000000000e-02  1.0000000000000e+00
 3.1200000000000e-02  1.0000000000000e+00
 3.1300000000000e-02  1.0000000000000e+00
 3.1400000000000e-02  1.0000000000000e+00
 3.1500000000000e-02  1.0000000000000e+00
 3.1600000000000e-02  1.0000000000000e+00
 3.1700000000000e-02  1.0000000000000e+00
 3.1800000000000e-02  1.0000000000000e+00
 3.1900000000000e-02  1.0000000000000e+00
 3.2000000000000e-02  1.0000000000000e+00
 3.2100000000000e-02  1.0000000000000e+00
 3.2200000000000e-02  1.0000000000000e+00
 3.2300000000000e-02  1.0000000000000e+00
 3.2400000000000e-02  1.0000000000000e+00
 3.2500000000000e-02  1.0000000000000e+00
 3.2600000000000e-02  1.0000000000000e+00
 3.2700000000000e-02  1.0000000000000e+00
 3.2800000000000e-02  1.0000000000000e+00
 3.2900000000000e-02  1.0000000000000e+00
 3.3000000000000e-02  1.0000000000000e+00
 3.3100000000000e-02  1.0000000000000e+00
 3.3200000000000e-02  1.0000000000000e+00
 3.3300000000000e-02  1.0000000000000e+00
 3.3400000000000e-02  1.0000000000000e+00
 3.3500000000000e-02  1.0000000000000e+00
 3.3600000000000e-02  1.0000000000000e+00
 3.3700000000000e-02  1.0000000000000e+00
 3.3800000000000e-02  1.0000000000000e+00
 3.3900000000000e-02  1.0000000000000e+00
 3.4000000000000e-02  1.0000000000000e+00
 3.4100000000000e-02  1.0000000000000e+00
 3.4200000000000e-02  1.0000000000000e+00
 3.4300000000000e-02  1.0000000000000e+00
 3.4400000000000e-02  1.0000000000000e+00
 3.4500000000000e-02  1.0000000000000e+00
 3.4600000000000e-02  1.0000000000000e+00
 3.4700000000000e-02  1.0000000000000e+00
 3.4800000000000e-02  1.0000000000000e+00
 3.4900000000000e-02  1.0000000000000e+00
 3.5000000000000e-02  1.0000000000000e+00
 3.5100000000000e-02  1.0000000000000e+00
 3.5200000000000e-02  1.0000000000000e+00
 3.5300000000000e-02  1.0000000000000e+00
 3.5400000000000e-02  1.0000000000000e+00
 3.5500000000000e-02  1.0000000000000e+00
 3.5600000000000e-02  1.0000000000000e+00
 3.5700000000000e-02  1.0000000000000e+00
 3.5800000000000e-02  1.0000000000000e+00
 3.5900000000000e-02  1.0000000000000e+00
 3.6000000000000e-02  1.0000000000000e+00
 3.6100000000000e-02  1.0000000000000e+00
 3.6200000000000e-02  1.0000000000000e+00
 3.6300000000000e-02  1.0000000000000e+00
 3.6400000000000e-02  1.0000000000000e+00
 3.6500000000000e-02  1.0000000000000e+00
 3.6600000000000e-02  1.0000000000000e+00
 3.6700000000000e-02  1.0000000000000e+00
 3.6800000000000e-02  1.0000000000000e+00
 3.6900000000000e-02  1.0000000000000e+00
 3.7000000000000e-02  1.0000000000000e+00
 3.7100000000000e-02  1.0000000000000e+00
 3.7200000000000e-02  1.0000000000000e+00
 3.7300000000000e-02  1.0000000000000e+00
 3.7400000000000e-02  1.0000000000000e+00
 3.7500000000000e-02  1.0000000000000e+00
 3.7600000000000e-02  1.0000000000000e+00
 3.7700000000000e-02  1.0000000000000e+00
 3.7800000000000e-02  1.0000000000000e+00
 3.7900000000000e-02  1.0000000000000e+00
 3.8000000000000e-02  1.0000000000000e+00
 3.8100000000000e-02  1.0000000000000e+00
 3.8200000000000e-02  1.0000000000000e+00
 3.8300000000000e-02  1.0000000000000e+00
 3.8400000000000e-02  1.0000000000000e+00
 3.8500000000000e-02  1.0000000000000e+00
 3.8600000000000e-02  1.0000000000000e+00
 3.8700000000000e-02  1.0000000000000e+00
 3.8800000000000e-02  1.0000000000000e+00
 3.8900000000000e-02  1.0000000000000e+00
 3.9000000000000e-02  1.0000000000000e+00
 3.9100000000000e-02  1.0000000000000e+00
 3.9200000000000e-02  1.0000000000000e+00
 3.9300000000000e-02  1.0000000000000e+00
 3.9400000000000e-02  1.0000000000000e+00
 3.9500000000000e-02  1.0000000000000e+00
 3.9600000000000e-02  1.0000000000000e+00
 3.9700000000000e-02  1.0000000000000e+00
 3.9800000000000e-02  1.0000000000000e+00
 3.9900000000000e-02  1.0000000000000e+00
 4.0000000000000e-02  1.0000000000000e+00
 4.0100000000000e-02  1.0000000000000e+00
 4.0200000000000e-02  1.0000000000000e+00
 4.0300000000000e-02  1.0000000000000e+00
 4.0400000000000e-02  1.0000000000000e+00
 4.0500000000000e-02  1.0000000000000e+00
 4.0600000000000e-02  1.0000000000000e+00
 4.0700000000000e-02  1.0000000000000e+00
 4.0800000000000e-02  1.0000000000000e+00
 4.0900000000000e-02  1.0000000000000e+00
 4.1000000000000e-02  1.0000000000000e+00
 4.1100000000000e-02  1.0000000000000e+00
 4.1200000000000e-02  1.0000000000000e+00
 4.1300000000000e-02  1.0000000000000e+00
 4.1400000000000e-02  1.0000000000000e+00
 4.1500000000000e-02  1.0000000000000e+00
 4.1600000000000e-02  1.0000000000000e+00
 4.1700000000000e-02  1.0000000000000e+00
 4.1800000000000e-02  1.0000000000000e+00
 4.1900000000000e-02  1.0000000000000e+00
 4.2000000000000e-02  1.0000000000000e+00
 4.2100000000000e-02  1.0000000000000e+00
 4.2200000000000e-02  1.0000000000000e+00
 4.2300000000000e-02  1.0000000000000e+00
 4.2400000000000e-02  1.0000000000000e+00
 4.2500000000000e-02  1.0000000000000e+00
 4.2600000000000e-02  1.0000000000000e+00
 4.2700000000000e-02  1.0000000000000e+00
 4.2800000000000e-02  1.0000000000000e+00
 4.2900000000000e-02  1.0000000000000e+00
 4.3000000000000e-02  1.0000000000000e+00
 4.3100000000000e-02  1.0000000000000e+00
 4.3200000000000e-02  1.0000000000000e+00
 4.3300000000000e-02  1.0000000000000e+00
 4.3400000000000e-02  1.0000000000000e+00
 4.3500000000000e-02  1.0000000000000e+00
 4.3600000000000e-02  1.0000000000000e+00
 4.3700000000000e-02  1.0000000000000e+00
 4.3800000000000e-02  1.0000000000000e+00
 4.3900000000000e-02  1.0000000000000e+00
 4.4000000000000e-02  1.0000000000000e+00
 4.4100000000000e-02  1.0000000000000e+00
 4.4200000000000e-02  1.0000000000000e+00
 4.4300000000000e-02  1.0000000000000e+00
 4.4400000000000e-02  1.0000000000000e+00
 4.4500000000000e-02  1.0000000000000e+00
 4.4600000000000e-02  1.0000000000000e+00
 4.4700000000000e-02  1.0000000000000e+00
 4.4800000000000e-02  1.0000000000000e+00
 4.4900000000000e-02  1.0000000000000e+00
 4.5000000000000e-02  1.0000000000000e+00
 4.5100000000000e-02  1.0000000000000e+00
 4.5200000000000e-02  1.0000000000000e+00
 4.5300000000000e-02  1.0000000000000e+00
 4.5400000000000e-02  1.0000000000000e+00
 4.5500000000000e-02  1.0000000000000e+00
 4.5600000000000e-02  1.0000000000000e+00
 4.5700000000000e-02  1.0000000000000e+00
 4.5800000000000e-02  1.0000000000000e+00
 4.5900000000000e-02  1.0000000000000e+00
 4.6000000000000e-02  1.0000000000000e+00
 4.6100000000000e-02  1.0000000000000e+00
 4.6200000000000e-02  1.0000000000000e+00
 4.6300000000000e-02  1.0000000000000e+00
 4.6400000000000e-02  1.0000000000000e+00
 4.6500000000000e-02  1.0000000000000e+00
 4.6600000000000e-02  1.0000000000000e+00
 4.6700000000000e-02  1.0000000000000e+00
 4.6800000000000e-02  1.0000000000000e+00
 4.6900000000000e-02  1.0000000000000e+00
 4.7000000000000e-02  1.0000000000000e+00
 4.7100000000000e-02  1.0000000000000e+00
 4.7200000000000e-02  1.0000000000000e+00
 4.7300000000000e-02  1.0000000000000e+00
 4.7400000000000e-02  1.0000000000000e+00
 4.7500000000000e-02  1.0000000000000e+00
 4.7600000000000e-02  1.0000000000000e+00
 4.7700000000000e-02  1.0000000000000e+00
 4.7800000000000e-02  1.0000000000000e+00
 4.7900000000000e-02  1.0000000000000e+00
 4.8000000000000e-02  1.0000000000000e+00
 4.8100000000000e-02  1.0000000000000e+00
 4.8200000000000e-02  1.0000000000000e+00
 4.8300000000000e-02  1.0000000000000e+00
 4.8400000000000e-02  1.0000000000000e+00
 4.8500000000000e-02  1.0000000000000e+00
 4.8600000000000e-02  1.0000000000000e+00
 4.8700000000000e-02  1.0000000000000e+00
 4.8800000000000e-02  1.0000000000000e+00
 4.8900000000000e-02  1.0000000000000e+00
 4.9000000000000e-02  1.0000000000000e+00
 4.9100000000000e-02  1.0000000000000e+00
 4.9200000000000e-02  1.0000000000000e+00
 4.9300000000000e-02  1.0000000000000e+00
 4.9400000000000e-02  1.0000000000000e+00
 4.9500000000000e-02  1.0000000000000e+00
 4.9600000000000e-02  1.0000000000000e+00
 4.9700000000000e-02  1.0000000000000e+00
 4.9800000000000e-02  1.0000000000000e+00
 4.9900000000000e-02  1.0000000000000e+00
 5.0000000000000e-02  1.0000000000000e+00
 5.0100000000000e-02  1.0000000000000e+00
 5.0200000000000e-02  1.0000000000000e+00
 5.0300000000000e-02  1.0000000000000e+00
 5.0400000000000e-02  1.0000000000000e+00
 5.0500000000000e-02  1.0000000000000e+00
 5.0600000000000e-02  1.0000000000000e+00
 5.0700000000000e-02  1.0000000000000e+00
 5.0800000000000e-02  1.0000000000000e+00
 5.0900000000000e-02  1.0000000000000e+00
 5.1000000000000e-02  1.0000000000000e+00
 5.1100000000000e-02  1.0000000000000e+00
 5.1200000000000e-02  1.0000000000000e+00
 5.1300000000000e-02  1.0000000000000e+00
 5.1400000000000e-02  1.0000000000000e+00
 5.1500000000000e-02  1.0000000000000e+00
 5.1600000000000e-02  1.0000000000000e+00
 5.1700000000000e-02  1.0000000000000e+00
 5.1800000000000e-02  1.0000000000000e+00
 5.1900000000000e-02  1.0000000000000e+00
 5.2000000000000e-02  1.0000000000000e+00
 5.2100000000000e-02  1.0000000000000e+00
 5.2200000000000e-02  1.0000000000000e+00
 5.2300000000000e-02  1.0000000000000e+00
 5.2400000000000e-02  1.0000000000000e+00
 5.2500000000000e-02  1.0000000000000e+00
 5.2600000000000e-02  1.0000000000000e+00
 5.2700000000000e-02  1.0000000000000e+00
 5.2800000000000e-02  1.0000000000000e+00
 5.2900000000000e-02  1.0000000000000e+00
 5.3000000000000e-02  1.0000000000000e+00
 5.3100000000000e-02  1.0000000000000e+00
 5.3200000000000e-02  1.0000000000000e+00
 5.3300000000000e-02  1.0000000000000e+00
 5.3400000000000e-02  1.0000000000000e+00
 5.3500000000000e-02  1.0000000000000e+00
 5.3600000000000e-02  1.0000000000000e+00
 5.3700000000000e-02  1.0000000000000e+00
 5.3800000000000e-02  1.0000000000000e+00
 5.3900000000000e-02  1.0000000000000e+00
 5.4000000000000e-02  1.0000000000000e+00
 5.4100000000000e-02  1.0000000000000e+00
 5.4200000000000e-02  1.0000000000000e+00
 5.4300000000000e-02  1.0000000000000e+00
 5.4400000000000e-02  1.0000000000000e+00
 5.4500000000000e-02  1.0000000000000e+00
 5.4600000000000e-02  1.0000000000000e+00
 5.4700000000000e-02  1.0000000000000e+00
 5.4800000000000e-02  1.0000000000000e+00
 5.4900000000000e-02  1.0000000000000e+00
 5.5000000000000e-02  1.0000000000000e+00
 5.5100000000000e-02  1.0000000000000e+00
 5.5200000000000e-02  1.0000000000000e+00
 5.5300000000000e-02  1.0000000000000e+00
 5.5400000000000e-02  1.0000000000000e+00
 5.5500000000000e-02  1.0000000000000e+00
 5.5600000000000e-02  1.0000000000000e+00
 5.5700000000000e-02  1.0000000000000e+00
 5.5800000000000e-02  1.0000000000000e+00
 5.5900000000000e-02  1.0000000000000e+00
 5.6000000000000e-02  1.0000000000000e+00
 5.6100000000000e-02  1.0000000000000e+00
 5.6200000000000e-02  1.0000000000000e+00
 5.6300000000000e-02  1.0000000000000e+00
 5.6400000000000e-02  1.0000000000000e+00
 5.6500000000000e-02  1.0000000000000e+00
 5.6600000000000e-02  1.0000000000000e+00
 5.6700000000000e-02  1.0000000000000e+00
 5.6800000000000e-02  1.0000000000000e+00
 5.6900000000000e-02  1.0000000000000e+00
 5.7000000000000e-02  1.0000000000000e+00
 5.7100000000000e-02  1.0000000000000e+00
 5.7200000000000e-02  1.0000000000000e+00
 5.7300000000000e-02  1.0000000000000e+00
 5.7400000000000e-02  1.0000000000000e+00
 5.7500000000000e-02  1.0000000000000e+00
 5.7600000000000e-02  1.0000000000000e+00
 5.7700000000000e-02  1.0000000000000e+00
 5.7800000000000e-02  1.0000000000000e+00
 5.7900000000000e-02  1.0000000000000e+00
 5.8000000000000e-02  1.0000000000000e+00
 5.8100000000000e-02  1.0000000000000e+00
 5.8200000000000e-02  1.0000000000000e+00
 5.8300000000000e-02  1.0000000000000e+00
 5.8400000000000e-02  1.0000000000000e+00
 5.8500000000000e-02  1.0000000000000e+00
 5.8600000000000e-02  1.0000000000000e+00
 5.8700000000000e-02  1.0000000000000e+00
 5.8800000000000e-02  1.0000000000000e+00
 5.8900000000000e-02  1.0000000000000e+00
 5.9000000000000e-02  1.0000000000000e+00
 5.9100000000000e-02  1.0000000000000e+00
 5.9200000000000e-02  1.0000000000000e+00
 5.9300000000000e-02  1.0000000000000e+00
 5.9400000000000e-02  1.0000000000000e+00
 5.9500000000000e-02  1.0000000000000e+00
 5.9600000000000e-02  1.0000000000000e+00
 5.9700000000000e-02  1.0000000000000e+00
 5.9800000000000e-02  1.0000000000000e+00
 5.9900000000000e-02  1.0000000000000e+00
 6.0000000000000e-02  1.0000000000000e+00
 6.0100000000000e-02  1.0000000000000e+00
 6.0200000000000e-02  1.0000000000000e+00
 6.0300000000000e-02  1.0000000000000e+00
 6.0400000000000e-02  1.0000000000000e+00
 6.0500000000000e-02  1.0000000000000e+00
 6.0600000000000e-02  1.0000000000000e+00
 6.0700000000000e-02  1.0000000000000e+00
 6.0800000000000e-02  1.0000000000000e+00
 6.0900000000000e-02  1.0000000000000e+00
 6.1000000000000e-02  1.0000000000000e+00
 6.1100000000000e-02  1.0000000000000e+00
 6.1200000000000e-02  1.0000000000000e+00
 6.1300000000000e-02  1.0000000000000e+00
 6.1400000000000e-02  1.0000000000000e+00
 6.1500000000000e-02  1.0000000000000e+00
 6.1600000000000e-02  1.0000000000000e+00
 6.1700000000000e-02  1.0000000000000e+00
 6.1800000000000e-02  1.0000000000000e+00
 6.1900000000000e-02  1.0000000000000e+00
 6.2000000000000e-02  1.0000000000000e+00
 6.2100000000000e-02  1.0000000000000e+00
 6.2200000000000e-02  1.0000000000000e+00
 6.2300000000000e-02  1.0000000000000e+00
 6.2400000000000e-02  1.0000000000000e+00
 6.2500000000000e-02  1.0000000000000e+00
 6.2600000000000e-02  1.0000000000000e+00
 6.2700000000000e-02  1.0000000000000e+00
 6.2800000000000e-02  1.0000000000000e+00
 6.2900000000000e-02  1.0000000000000e+00
 6.3000000000000e-02  1.0000000000000e+00
 6.3100000000000e-02  1.0000000000000e+00
 6.3200000000000e-02  1.0000000000000e+00
 6.3300000000000e-02  1.0000000000000e+00
 6.3400000000000e-02  1.0000000000000e+00
 6.3500000000000e-02  1.0000000000000e+00
 6.3600000000000e-02  1.0000000000000e+00
 6.3700000000000e-02  1.0000000000000e+00
 6.3800000000000e-02  1.0000000000000e+00
 6.3900000000000e-02  1.0000000000000e+00
 6.4000000000000e-02  1.0000000000000e+00
 6.4100000000000e-02  1.0000000000000e+00
 6.4200000000000e-02  1.0000000000000e+00
 6.4300000000000e-02  1.0000000000000e+00
 6.4400000000000e-02  1.0000000000000e+00
 6.4500000000000e-02  1.0000000000000e+00
 6.4600000000000e-02  1.0000000000000e+00
 6.4700000000000e-02  1.0000000000000e+00
 6.4800000000000e-02  1.0000000000000e+00
 6.4900000000000e-02  1.0000000000000e+00
 6.5000000000000e-02  1.0000000000000e+00
 6.5100000000000e-02  1.0000000000000e+00
 6.5200000000000e-02  1.0000000000000e+00
 6.5300000000000e-02  1.0000000000000e+00
 6.5400000000000e-02  1.0000000000000e+00
 6.5500000000000e-02  1.0000000000000e+00
 6.5600000000000e-02  1.0000000000000e+00
 6.5700000000000e-02  1.0000000000000e+00
 6.5800000000000e-02  1.0000000000000e+00
 6.5900000000000e-02  1.0000000000000e+00
 6.6000000000000e-02  1.0000000000000e+00
 6.6100000000000e-02  1.0000000000000e+00
 6.6200000000000e-02  1.0000000000000e+00
 6.6300000000000e-02  1.0000000000000e+00
 6.6400000000000e-02  1.0000000000000e+00
 6.6500000000000e-02  1.0000000000000e+00
 6.6600000000000e-02  1.0000000000000e+00
 6.6700000000000e-02  1.0000000000000e+00
 6.6800000000000e-02  1.0000000000000e+00
 6.6900000000000e-02  1.0000000000000e+00
 6.7000000000000e-02  1.0000000000000e+00
 6.7100000000000e-02  1.0000000000000e+00
 6.7200000000000e-02  1.0000000000000e+00
 6.7300000000000e-02  1.0000000000000e+00
 6.7400000000000e-02  1.0000000000000e+00
 6.7500000000000e-02  1.0000000000000e+00
 6.7600000000000e-02  1.0000000000000e+00
 6.7700000000000e-02  1.0000000000000e+00
 6.7800000000000e-02  1.0000000000000e+00
 6.7900000000000e-02  1.0000000000000e+00
 6.8000000000000e-02  1.0000000000000e+00
 6.8100000000000e-02  1.0000000000000e+00
 6.8200000000000e-02  1.0000000000000e+00
 6.8300000000000e-02  1.0000000000000e+00
 6.8400000000000e-02  1.0000000000000e+00
 6.8500000000000e-02  1.0000000000000e+00
 6.8600000000000e-02  1.0000000000000e+00
 6.8700000000000e-02  1.0000000000000e+00
 6.8800000000000e-02  1.0000000000000e+00
 6.8900000000000e-02  1.0000000000000e+00
 6.9000000000000e-02  1.0000000000000e+00
 6.9100000000000e-02  1.0000000000000e+00
 6.9200000000000e-02  1.0000000000000e+00
 6.9300000000000e-02  1.0000000000000e+00
 6.9400000000000e-02  1.0000000000000e+00
 6.9500000000000e-02  1.0000000000000e+00
 6.9600000000000e-02  1.0000000000000e+00
 6.9700000000000e-02  1.0000000000000e+00
 6.9800000000000e-02  1.0000000000000e+00
 6.9900000000000e-02  1.0000000000000e+00
 7.0000000000000e-02  1.0000000000000e+00
 7.0100000000000e-02  1.0000000000000e+00
 7.0200000000000e-02  1.0000000000000e+00
 7.0300000000000e-02  1.0000000000000e+00
 7.0400000000000e-02  1.0000000000000e+00
 7.0500000000000e-02  1.0000000000000e+00
 7.0600000000000e-02  1.0000000000000e+00
 7.0700000000000e-02  1.0000000000000e+00
 7.0800000000000e-02  1.0000000000000e+00
 7.0900000000000e-02  1.0000000000000e+00
 7.1000000000000e-02  1.0000000000000e+00
 7.1100000000000e-02  1.0000000000000e+00